#                                                                     
# :   :::   :::     ::::    ::::  :::::::::   ::::::::                
# :+:   :+: :+: :+:   +:+:+: :+:+:+ :+:    :+: :+:    :+              
#  +:+ +:+ +:+   +:+  +:+ +:+:+ +:+ +:+    +:+ +:+    +:+             
#   +#++: +#++:++#++: +#+  +:+  +#+ +#++:++#+  +#+    +:+             
#    +#+  +#+     +#+ +#+       +#+ +#+    +#+ +#+    +#+             
#    #+#  #+#     #+# #+#       #+# #+#    #+# #+#    #+#             
#    ###  ###     ### ###       ### #########   ########              
#                                                                     
#                                                                     
#       Version 5.0.3 Revision 19584 Hash 1cce2ba63                   
#                        Branch is                                    
#           MPI+OpenMP+SLK+SLEPC+HDF5_IO Build                        
#                http://www.yambo-code.org                            
#
   CRYSTAL
   PRIMVEC
     12.4779987      0.00000000      0.00000000   
    -6.23899937      10.8062630      0.00000000   
     0.00000000      0.00000000      6.44363832   
   PRIMCOORD
    101    1
-1   3.74340   5.04292   3.81845
    5   1.24780   0.72042   0.00000
    5   0.00000   2.88167   0.00000
    5  -1.24780   5.04292   0.00000
    5  -2.49560   7.20417   0.00000
    5  -3.74340   9.36543   0.00000
    5   3.74340   0.72042   0.00000
    5   2.49560   2.88167   0.00000
    5   1.24780   5.04292   0.00000
    5   0.00000   7.20417   0.00000
    5  -1.24780   9.36543   0.00000
    5   6.23900   0.72042   0.00000
    5   4.99120   2.88167   0.00000
    5   3.74340   5.04292   0.00000
    5   2.49560   7.20417   0.00000
    5   1.24780   9.36543   0.00000
    5   8.73460   0.72042   0.00000
    5   7.48680   2.88167   0.00000
    5   6.23900   5.04292   0.00000
    5   4.99120   7.20417   0.00000
    5   3.74340   9.36543   0.00000
    5  11.23020   0.72042   0.00000
    5   9.98240   2.88167   0.00000
    5   8.73460   5.04292   0.00000
    5   7.48680   7.20417   0.00000
    5   6.23900   9.36543   0.00000
    5  -1.24780  -0.72042   3.22182
    5  -2.49560   1.44083   3.22182
    5  -3.74340   3.60209   3.22182
    5  -4.99120   5.76334   3.22182
    5  -6.23900   7.92459   3.22182
    5   1.24780  -0.72042   3.22182
    5  -0.00000   1.44083   3.22182
    5  -1.24780   3.60209   3.22182
    5  -2.49560   5.76334   3.22182
    5  -3.74340   7.92459   3.22182
    5   3.74340  -0.72042   3.22182
    5   2.49560   1.44083   3.22182
    5   1.24780   3.60209   3.22182
    5   0.00000   5.76334   3.22182
    5  -1.24780   7.92459   3.22182
    5   6.23900  -0.72042   3.22182
    5   4.99120   1.44083   3.22182
    5   3.74340   3.60209   3.22182
    5   2.49560   5.76334   3.22182
    5   1.24780   7.92459   3.22182
    5   8.73460  -0.72042   3.22182
    5   7.48680   1.44083   3.22182
    5   6.23900   3.60209   3.22182
    5   4.99120   5.76334   3.22182
    5   3.74340   7.92459   3.22182
    7  -1.24780  -0.72042   0.00000
    7  -2.49560   1.44083   0.00000
    7  -3.74340   3.60209   0.00000
    7  -4.99120   5.76334   0.00000
    7  -6.23900   7.92459   0.00000
    7   1.24780  -0.72042   0.00000
    7  -0.00000   1.44083   0.00000
    7  -1.24780   3.60209   0.00000
    7  -2.49560   5.76334   0.00000
    7  -3.74340   7.92459   0.00000
    7   3.74340  -0.72042   0.00000
    7   2.49560   1.44083   0.00000
    7   1.24780   3.60209   0.00000
    7   0.00000   5.76334   0.00000
    7  -1.24780   7.92459   0.00000
    7   6.23900  -0.72042   0.00000
    7   4.99120   1.44083   0.00000
    7   3.74340   3.60209   0.00000
    7   2.49560   5.76334   0.00000
    7   1.24780   7.92459   0.00000
    7   8.73460  -0.72042   0.00000
    7   7.48680   1.44083   0.00000
    7   6.23900   3.60209   0.00000
    7   4.99120   5.76334   0.00000
    7   3.74340   7.92459   0.00000
    7   1.24780   0.72042   3.22182
    7   0.00000   2.88167   3.22182
    7  -1.24780   5.04292   3.22182
    7  -2.49560   7.20417   3.22182
    7  -3.74340   9.36543   3.22182
    7   3.74340   0.72042   3.22182
    7   2.49560   2.88167   3.22182
    7   1.24780   5.04292   3.22182
    7   0.00000   7.20417   3.22182
    7  -1.24780   9.36543   3.22182
    7   6.23900   0.72042   3.22182
    7   4.99120   2.88167   3.22182
    7   3.74340   5.04292   3.22182
    7   2.49560   7.20417   3.22182
    7   1.24780   9.36543   3.22182
    7   8.73460   0.72042   3.22182
    7   7.48680   2.88167   3.22182
    7   6.23900   5.04292   3.22182
    7   4.99120   7.20417   3.22182
    7   3.74340   9.36543   3.22182
    7  11.23020   0.72042   3.22182
    7   9.98240   2.88167   3.22182
    7   8.73460   5.04292   3.22182
    7   7.48680   7.20417   3.22182
    7   6.23900   9.36543   3.22182
   BEGIN_BLOCK_DATAGRID_3D
   Generated with YPP:   5   0   3
   BEGIN_DATAGRID_3D
     61   61   28
     0.00000000      0.00000000      0.00000000   
     12.4779987      0.00000000      0.00000000   
    -6.23899937      10.8062630      0.00000000   
     0.00000000      0.00000000      6.44363832   
    0.149754058E-6
    0.562537707E-5
    0.340915249E-4
    0.102806676E-3
    0.225208787E-3
    0.359462225E-3
    0.412373774E-3
    0.360447797E-3
    0.229020618E-3
    0.103696264E-3
    0.362382416E-4
    0.732874241E-5
    0.126993731E-7
    0.724752999E-5
    0.453015273E-4
    0.140691031E-3
    0.310598116E-3
    0.499596237E-3
    0.581215369E-3
    0.499484478E-3
    0.310473086E-3
    0.140603253E-3
    0.452627755E-4
    0.723928497E-5
    0.127873028E-7
    0.732075296E-5
    0.361923921E-4
    0.103563551E-3
    0.228745077E-3
    0.360047154E-3
    0.411981979E-3
    0.359179336E-3
    0.225060881E-3
    0.102761529E-3
    0.340837287E-4
    0.562637842E-5
    0.149752552E-6
    0.625706480E-5
    0.323960812E-4
    0.980590412E-4
    0.223576746E-3
    0.356069882E-3
    0.405283470E-3
    0.351169641E-3
    0.217942768E-3
    0.963679558E-4
    0.320207109E-4
    0.572651606E-5
    0.378302545E-8
    0.615735826E-5
    0.353967880E-4
    0.115770243E-3
    0.271769270E-3
    0.445891055E-3
    0.519228110E-3
    0.445777870E-3
    0.271650031E-3
    0.115688235E-3
    0.353602554E-4
    0.614890814E-5
    0.149754058E-6
    0.798471046E-5
    0.825484676E-5
    0.161298540E-4
    0.420980359E-4
    0.992047208E-4
    0.200682349E-3
    0.289411517E-3
    0.283064524E-3
    0.194315493E-3
    0.950947360E-4
    0.399105811E-4
    0.166621194E-4
    0.789026853E-5
    0.665387324E-5
    0.152429620E-4
    0.493678672E-4
    0.129754699E-3
    0.269683514E-3
    0.398410280E-3
    0.398307369E-3
    0.269498240E-3
    0.129619424E-3
    0.492958097E-4
    0.152178400E-4
    0.665464131E-5
    0.789932983E-5
    0.166620430E-4
    0.398727534E-4
    0.949714085E-4
    0.194052176E-3
    0.282722525E-3
    0.289177930E-3
    0.200608993E-3
    0.992158675E-4
    0.421303739E-4
    0.161540684E-4
    0.826324322E-5
    0.797578832E-5
    0.156078077E-4
    0.383385704E-4
    0.926642970E-4
    0.194761087E-3
    0.285630784E-3
    0.283528090E-3
    0.188083257E-3
    0.875976548E-4
    0.359042715E-4
    0.141279916E-4
    0.674277408E-5
    0.614881947E-5
    0.131891084E-4
    0.387313303E-4
    0.105905805E-3
    0.236275722E-3
    0.361073035E-3
    0.360966718E-3
    0.236089909E-3
    0.105774205E-3
    0.386623324E-4
    0.131655252E-4
    0.798471046E-5
    0.417458832E-4
    0.378683580E-4
    0.395454299E-4
    0.432573652E-4
    0.585756461E-4
    0.118171381E-3
    0.210357684E-3
    0.238532462E-3
    0.194433407E-3
    0.113011803E-3
    0.598758015E-4
    0.489129598E-4
    0.452114291E-4
    0.392756992E-4
    0.373989787E-4
    0.393605987E-4
    0.597894141E-4
    0.138421921E-3
    0.264201924E-3
    0.324621098E-3
    0.263940572E-3
    0.138214440E-3
    0.596957871E-4
    0.393314949E-4
    0.374140436E-4
    0.393198206E-4
    0.452671484E-4
    0.489552840E-4
    0.598760744E-4
    0.112905836E-3
    0.194148175E-3
    0.238267588E-3
    0.210347425E-3
    0.118270829E-3
    0.586620190E-4
    0.433211899E-4
    0.395799470E-4
    0.378651239E-4
    0.417012961E-4
    0.478091461E-4
    0.600121566E-4
    0.113201415E-3
    0.201519055E-3
    0.243398128E-3
    0.194946013E-3
    0.980941622E-4
    0.485951205E-4
    0.395884563E-4
    0.364688967E-4
    0.339476028E-4
    0.353490032E-4
    0.386922184E-4
    0.514135572E-4
    0.114530638E-3
    0.236679276E-3
    0.303070992E-3
    0.236408028E-3
    0.114325514E-3
    0.513251834E-4
    0.386675674E-4
    0.417458832E-4
    0.132546847E-3
    0.120480145E-3
    0.114095266E-3
    0.112084068E-3
    0.103101833E-3
    0.124904691E-3
    0.169982653E-3
    0.126919607E-3
    0.110019188E-3
    0.161177275E-3
    0.143493147E-3
    0.133840411E-3
    0.140438497E-3
    0.125205624E-3
    0.114677823E-3
    0.112563386E-3
    0.101078709E-3
    0.119130891E-3
    0.166997343E-3
    0.151953238E-3
    0.151778047E-3
    0.166750309E-3
    0.119033604E-3
    0.101086800E-3
    0.112636779E-3
    0.114794566E-3
    0.125361097E-3
    0.140616074E-3
    0.133997441E-3
    0.143611265E-3
    0.161171833E-3
    0.109854533E-3
    0.126942978E-3
    0.170217492E-3
    0.125087710E-3
    0.103214523E-3
    0.112153219E-3
    0.114109527E-3
    0.120428354E-3
    0.132431465E-3
    0.129772510E-3
    0.143395679E-3
    0.165030942E-3
    0.116010451E-3
    0.115984913E-3
    0.141642842E-3
    0.110096204E-3
    0.102858095E-3
    0.113353657E-3
    0.112046051E-3
    0.113026501E-3
    0.115619012E-3
    0.105765466E-3
    0.114417729E-3
    0.147755709E-3
    0.133156893E-3
    0.132971516E-3
    0.147515297E-3
    0.114344737E-3
    0.105795902E-3
    0.132546847E-3
    0.305283000E-3
    0.314903824E-3
    0.292878802E-3
    0.277870655E-3
    0.239543660E-3
    0.213075124E-3
    0.238166554E-3
    0.145498547E-3
    0.641531273E-7
    0.158185401E-3
    0.288853742E-3
    0.291638804E-3
    0.324378547E-3
    0.331820222E-3
    0.299887208E-3
    0.290271157E-3
    0.257482316E-3
    0.220101210E-3
    0.226533957E-3
    0.131024237E-3
    0.908759660E-6
    0.131024412E-3
    0.226590739E-3
    0.220229718E-3
    0.257707259E-3
    0.290571072E-3
    0.300238142E-3
    0.332232041E-3
    0.324786350E-3
    0.292007549E-3
    0.289214629E-3
    0.158374853E-3
    0.641192131E-7
    0.145658953E-3
    0.238398134E-3
    0.213228137E-3
    0.239633213E-3
    0.277896004E-3
    0.292819081E-3
    0.314758479E-3
    0.305079826E-3
    0.282110152E-3
    0.286633411E-3
    0.159247240E-3
    0.842436521E-7
    0.134751390E-3
    0.230359001E-3
    0.223588024E-3
    0.259349705E-3
    0.294176280E-3
    0.298905128E-3
    0.301912980E-3
    0.271425815E-3
    0.235953223E-3
    0.236348729E-3
    0.132975023E-3
    0.26160689E-13
    0.133007576E-3
    0.236472231E-3
    0.236149208E-3
    0.305283000E-3
    0.496808090E-3
    0.613263110E-3
    0.622351654E-3
    0.576558465E-3
    0.500193390E-3
    0.369198911E-3
    0.306224829E-3
    0.261478970E-3
    0.978266035E-4
    0.137962023E-3
    0.358708552E-3
    0.434082322E-3
    0.525569136E-3
    0.650450005E-3
    0.636957819E-3
    0.591899792E-3
    0.543872186E-3
    0.409980537E-3
    0.329129951E-3
    0.279095140E-3
    0.117376148E-3
    0.117558113E-3
    0.279444386E-3
    0.329464237E-3
    0.410398265E-3
    0.544440933E-3
    0.592559227E-3
    0.637724472E-3
    0.651247567E-3
    0.526219897E-3
    0.434633374E-3
    0.359162834E-3
    0.138047413E-3
    0.976860829E-4
    0.261470064E-3
    0.306299742E-3
    0.369268557E-3
    0.500236696E-3
    0.576504332E-3
    0.622137741E-3
    0.612973934E-3
    0.496542314E-3
    0.419186719E-3
    0.350086455E-3
    0.142767138E-3
    0.116449315E-3
    0.283158181E-3
    0.336308090E-3
    0.417356059E-3
    0.558389002E-3
    0.616095145E-3
    0.625756569E-3
    0.582455250E-3
    0.445340964E-3
    0.360604725E-3
    0.302695786E-3
    0.132941321E-3
    0.133166599E-3
    0.303151814E-3
    0.361065177E-3
    0.496808090E-3
    0.572237186E-3
    0.825136958E-3
    0.913479249E-3
    0.800608774E-3
    0.729876629E-3
    0.602887711E-3
    0.403849670E-3
    0.281915680E-3
    0.174786692E-3
    0.120538629E-3
    0.259590364E-3
    0.421608507E-3
    0.605380221E-3
    0.875608413E-3
    0.918527076E-3
    0.769721519E-3
    0.765579171E-3
    0.687162101E-3
    0.464582903E-3
    0.324180641E-3
    0.215673310E-3
    0.136863557E-3
    0.216007378E-3
    0.324623048E-3
    0.465135003E-3
    0.687917869E-3
    0.766388548E-3
    0.770608080E-3
    0.919626327E-3
    0.876652251E-3
    0.606106536E-3
    0.422099838E-3
    0.259794062E-3
    0.120391414E-3
    0.174560468E-3
    0.281805755E-3
    0.403814047E-3
    0.602898363E-3
    0.729897758E-3
    0.800436945E-3
    0.913085882E-3
    0.824780727E-3
    0.572035322E-3
    0.408184598E-3
    0.261212903E-3
    0.139382551E-3
    0.208140642E-3
    0.327252958E-3
    0.476435147E-3
    0.717707560E-3
    0.827769400E-3
    0.817511172E-3
    0.868564297E-3
    0.770505052E-3
    0.518623623E-3
    0.360577978E-3
    0.236293970E-3
    0.147718223E-3
    0.236712003E-3
    0.361163460E-3
    0.572237186E-3
    0.482948177E-3
    0.813705905E-3
    0.985316467E-3
    0.762652780E-3
    0.610409363E-3
    0.655331532E-3
    0.562842062E-3
    0.337981066E-3
    0.174304019E-3
    0.837293337E-4
    0.112421621E-3
    0.263785536E-3
    0.513091742E-3
    0.894002209E-3
    0.105671189E-2
    0.754333683E-3
    0.637134362E-3
    0.786039338E-3
    0.689166016E-3
    0.402119826E-3
    0.209815946E-3
    0.103982464E-3
    0.104098610E-3
    0.210135520E-3
    0.402654958E-3
    0.690012006E-3
    0.786925608E-3
    0.637837918E-3
    0.755211862E-3
    0.105791888E-2
    0.895029923E-3
    0.513681502E-3
    0.264042144E-3
    0.112413960E-3
    0.835702740E-4
    0.174133660E-3
    0.337851467E-3
    0.562727102E-3
    0.655303069E-3
    0.610368792E-3
    0.762386480E-3
    0.984925195E-3
    0.813464110E-3
    0.482882489E-3
    0.263040041E-3
    0.123038990E-3
    0.102982369E-3
    0.209425358E-3
    0.405905419E-3
    0.705640297E-3
    0.834941166E-3
    0.692247879E-3
    0.727740175E-3
    0.915290439E-3
    0.770468789E-3
    0.445300684E-3
    0.235905798E-3
    0.114379051E-3
    0.114526760E-3
    0.236325737E-3
    0.482948177E-3
    0.291338103E-3
    0.595856749E-3
    0.884535373E-3
    0.743539189E-3
    0.452731038E-3
    0.467707083E-3
    0.575797516E-3
    0.427606719E-3
    0.205020595E-3
    0.756605805E-4
    0.417483207E-4
    0.112899841E-3
    0.308192510E-3
    0.678707147E-3
    0.106773351E-2
    0.930877111E-3
    0.590540119E-3
    0.669710862E-3
    0.795883010E-3
    0.545912655E-3
    0.250133453E-3
    0.942762053E-4
    0.451644628E-4
    0.944202257E-4
    0.250487123E-3
    0.546620169E-3
    0.796870852E-3
    0.670500507E-3
    0.591239776E-3
    0.931921648E-3
    0.106893282E-2
    0.679485092E-3
    0.308531598E-3
    0.112975846E-3
    0.416918811E-4
    0.755455039E-4
    0.204895769E-3
    0.427459425E-3
    0.575654150E-3
    0.467652571E-3
    0.452591339E-3
    0.743211713E-3
    0.884245150E-3
    0.595737190E-3
    0.291349250E-3
    0.116486255E-3
    0.509133970E-4
    0.928555819E-4
    0.245563744E-3
    0.535884115E-3
    0.786433753E-3
    0.657230848E-3
    0.524515111E-3
    0.727661478E-3
    0.868460105E-3
    0.582391687E-3
    0.271381316E-3
    0.105732426E-3
    0.513999221E-4
    0.105923056E-3
    0.291338103E-3
    0.123807491E-3
    0.306125701E-3
    0.601677515E-3
    0.767693215E-3
    0.582659151E-3
    0.451116532E-3
    0.506197277E-3
    0.426969724E-3
    0.220424219E-3
    0.868098214E-4
    0.284235248E-4
    0.377393553E-4
    0.132241810E-3
    0.354046177E-3
    0.768411031E-3
    0.110636360E-2
    0.957854267E-3
    0.796343375E-3
    0.826350530E-3
    0.615900033E-3
    0.293929363E-3
    0.112812872E-3
    0.364455045E-4
    0.364883526E-4
    0.112979025E-3
    0.294316473E-3
    0.616666977E-3
    0.827344542E-3
    0.797304325E-3
    0.958972087E-3
    0.110762776E-2
    0.769303122E-3
    0.354456046E-3
    0.132373680E-3
    0.377386459E-4
    0.283665395E-4
    0.867270064E-4
    0.220334914E-3
    0.426852406E-3
    0.506112061E-3
    0.450994034E-3
    0.582333945E-3
    0.767300953E-3
    0.601472566E-3
    0.306073867E-3
    0.123839724E-3
    0.406447762E-4
    0.347355708E-4
    0.102756021E-3
    0.275202270E-3
    0.574448786E-3
    0.745151192E-3
    0.657159952E-3
    0.692112895E-3
    0.817359600E-3
    0.625666580E-3
    0.301870692E-3
    0.115591116E-3
    0.386769279E-4
    0.387320397E-4
    0.123807491E-3
    0.377986325E-4
    0.117341515E-3
    0.286247203E-3
    0.558267871E-3
    0.703710655E-3
    0.622548687E-3
    0.549679855E-3
    0.418009469E-3
    0.207689751E-3
    0.843618836E-4
    0.302459357E-4
    0.112136404E-4
    0.402968908E-4
    0.139899319E-3
    0.373162882E-3
    0.802466762E-3
    0.113481143E-2
    0.109638611E-2
    0.946924265E-3
    0.660330348E-3
    0.311682932E-3
    0.120514596E-3
    0.396064715E-4
    0.139624308E-4
    0.396641190E-4
    0.120674660E-3
    0.312062533E-3
    0.661107420E-3
    0.948035275E-3
    0.109770242E-2
    0.113615964E-2
    0.803422939E-3
    0.373608607E-3
    0.140061093E-3
    0.403303929E-4
    0.111961617E-4
    0.302082899E-4
    0.843220187E-4
    0.207646590E-3
    0.417959382E-3
    0.549604592E-3
    0.622271211E-3
    0.703269558E-3
    0.557970139E-3
    0.286133552E-3
    0.117322881E-3
    0.378191835E-4
    0.128139664E-4
    0.320905892E-4
    0.101602782E-3
    0.273565005E-3
    0.574417179E-3
    0.786334102E-3
    0.834794773E-3
    0.827630109E-3
    0.616005855E-3
    0.298865663E-3
    0.113007838E-3
    0.353380674E-4
    0.131857241E-4
    0.377986325E-4
    0.662153616E-5
    0.370752750E-4
    0.113424438E-3
    0.272125268E-3
    0.488225836E-3
    0.582030683E-3
    0.534046208E-3
    0.408153981E-3
    0.213620209E-3
    0.829539713E-4
    0.304912501E-4
    0.582144139E-5
    0.612929944E-5
    0.447306084E-4
    0.155344984E-3
    0.393655297E-3
    0.743608864E-3
    0.953237759E-3
    0.896054902E-3
    0.656355522E-3
    0.338758953E-3
    0.130947912E-3
    0.418047530E-4
    0.731824093E-5
    0.732869330E-5
    0.418560230E-4
    0.131092878E-3
    0.339141814E-3
    0.657112047E-3
    0.897117367E-3
    0.954393996E-3
    0.744517136E-3
    0.394136703E-3
    0.155535003E-3
    0.447856728E-4
    0.613338443E-5
    0.581368249E-5
    0.304869645E-4
    0.829638739E-4
    0.213626612E-3
    0.408134511E-3
    0.533917220E-3
    0.581726374E-3
    0.487927493E-3
    0.271959521E-3
    0.113355280E-3
    0.370621638E-4
    0.662683897E-5
    0.523180734E-5
    0.307850387E-4
    0.101594262E-3
    0.275173632E-3
    0.535813393E-3
    0.705531798E-3
    0.717611518E-3
    0.558329048E-3
    0.294146303E-3
    0.112035086E-3
    0.339432736E-4
    0.614662804E-5
    0.662153616E-5
    0.182354455E-6
    0.902558531E-5
    0.420489378E-4
    0.115366289E-3
    0.239456669E-3
    0.361467857E-3
    0.383548817E-3
    0.317641126E-3
    0.195692686E-3
    0.849393473E-4
    0.314252393E-4
    0.702414764E-5
    0.235181403E-6
    0.994419315E-5
    0.576266248E-4
    0.173560868E-3
    0.366493128E-3
    0.571244222E-3
    0.632469135E-3
    0.521147507E-3
    0.317483064E-3
    0.140570322E-3
    0.468726648E-4
    0.846278181E-5
    0.112675579E-6
    0.846473358E-5
    0.468990656E-4
    0.140687713E-3
    0.317814003E-3
    0.521745533E-3
    0.633241143E-3
    0.571955810E-3
    0.366947002E-3
    0.173768305E-3
    0.576927850E-4
    0.995489972E-5
    0.235264224E-6
    0.703233582E-5
    0.314576573E-4
    0.849987700E-4
    0.195750035E-3
    0.317641709E-3
    0.383411039E-3
    0.361234153E-3
    0.239261353E-3
    0.115250143E-3
    0.420018841E-4
    0.901609474E-5
    0.182479738E-6
    0.523024983E-5
    0.320822728E-4
    0.102733204E-3
    0.245518226E-3
    0.405835453E-3
    0.476368878E-3
    0.417320087E-3
    0.259336841E-3
    0.113352333E-3
    0.364708067E-4
    0.674331204E-5
    0.182354455E-6
    0.661894092E-5
    0.901726526E-5
    0.207520625E-4
    0.515008505E-4
    0.112706257E-3
    0.218888614E-3
    0.296697574E-3
    0.261160283E-3
    0.165169928E-3
    0.774192740E-4
    0.352141942E-4
    0.184330565E-4
    0.110795463E-4
    0.120281984E-4
    0.265451417E-4
    0.749041428E-4
    0.176416826E-3
    0.342356594E-3
    0.464052864E-3
    0.418048759E-3
    0.269747718E-3
    0.128029540E-3
    0.521266338E-4
    0.227000455E-4
    0.147174514E-4
    0.147060209E-4
    0.226705906E-4
    0.521029178E-4
    0.128076266E-3
    0.269972545E-3
    0.418536860E-3
    0.464648736E-3
    0.342767802E-3
    0.176597561E-3
    0.749537357E-4
    0.265412455E-4
    0.120134609E-4
    0.110742367E-4
    0.184525234E-4
    0.352719071E-4
    0.775219596E-4
    0.165292076E-3
    0.261169742E-3
    0.296502578E-3
    0.218651941E-3
    0.112554546E-3
    0.514248823E-4
    0.207265548E-4
    0.901731164E-5
    0.662711091E-5
    0.128103848E-4
    0.347223722E-4
    0.928254012E-4
    0.209373626E-3
    0.327197689E-3
    0.336283847E-3
    0.223591225E-3
    0.102867802E-3
    0.395964526E-4
    0.141316004E-4
    0.661894092E-5
    0.377730939E-4
    0.370332818E-4
    0.419993739E-4
    0.514618187E-4
    0.723409394E-4
    0.144504971E-3
    0.253911421E-3
    0.248385535E-3
    0.166926751E-3
    0.989590044E-4
    0.649329741E-4
    0.631154398E-4
    0.608657792E-4
    0.561780325E-4
    0.603752123E-4
    0.736809307E-4
    0.111780369E-3
    0.230586898E-3
    0.379695382E-3
    0.364273845E-3
    0.259159773E-3
    0.149078885E-3
    0.850680881E-4
    0.796681998E-4
    0.832538499E-4
    0.818502886E-4
    0.831988582E-4
    0.795755113E-4
    0.849595963E-4
    0.148993175E-3
    0.259288237E-3
    0.364745676E-3
    0.380109850E-3
    0.230720732E-3
    0.111768699E-3
    0.736142683E-4
    0.602940418E-4
    0.561097040E-4
    0.608248156E-4
    0.631150979E-4
    0.649930516E-4
    0.991170818E-4
    0.167116887E-3
    0.248306140E-3
    0.253594219E-3
    0.144283884E-3
    0.722450204E-4
    0.514279818E-4
    0.420069555E-4
    0.370673515E-4
    0.378228797E-4
    0.406437030E-4
    0.509005586E-4
    0.102945836E-3
    0.208084602E-3
    0.283135974E-3
    0.230382968E-3
    0.110119341E-3
    0.486068893E-4
    0.359093901E-4
    0.377730939E-4
    0.123698526E-3
    0.117211559E-3
    0.113279297E-3
    0.115213399E-3
    0.112573776E-3
    0.144400939E-3
    0.215639069E-3
    0.162474229E-3
    0.947548469E-4
    0.167850201E-3
    0.183159034E-3
    0.186258447E-3
    0.198453869E-3
    0.183712706E-3
    0.173626991E-3
    0.173776280E-3
    0.170910658E-3
    0.229187572E-3
    0.333121861E-3
    0.236063934E-3
    0.146384496E-3
    0.230598947E-3
    0.227587152E-3
    0.231264465E-3
    0.262117246E-3
    0.260676723E-3
    0.260626926E-3
    0.261982525E-3
    0.231072365E-3
    0.227312732E-3
    0.230300895E-3
    0.146417588E-3
    0.236291555E-3
    0.333090255E-3
    0.229010911E-3
    0.170696047E-3
    0.173532258E-3
    0.173396300E-3
    0.183512166E-3
    0.198290581E-3
    0.186162593E-3
    0.183161683E-3
    0.168000872E-3
    0.948824381E-4
    0.162263808E-3
    0.215362350E-3
    0.144289806E-3
    0.112560607E-3
    0.115258532E-3
    0.113366397E-3
    0.117337557E-3
    0.123857113E-3
    0.116500101E-3
    0.123038059E-3
    0.139352240E-3
    0.116417366E-3
    0.134774091E-3
    0.141677287E-3
    0.981064950E-4
    0.875993355E-4
    0.123698526E-3
    0.291039149E-3
    0.305772817E-3
    0.285884715E-3
    0.271754863E-3
    0.239122193E-3
    0.218593137E-3
    0.253611128E-3
    0.162310665E-3
    0.127912060E-6
    0.214854706E-3
    0.406266481E-3
    0.420316122E-3
    0.464312878E-3
    0.484171236E-3
    0.450459891E-3
    0.419878314E-3
    0.362183870E-3
    0.335117715E-3
    0.389675319E-3
    0.244871102E-3
    0.889908904E-6
    0.262447895E-3
    0.492144783E-3
    0.513480976E-3
    0.601149746E-3
    0.677472912E-3
    0.681617297E-3
    0.677337288E-3
    0.600926112E-3
    0.513178296E-3
    0.491745595E-3
    0.262192072E-3
    0.889888213E-6
    0.244606985E-3
    0.389196299E-3
    0.334648939E-3
    0.361659797E-3
    0.419303862E-3
    0.449909392E-3
    0.483657786E-3
    0.463886885E-3
    0.419999124E-3
    0.406020263E-3
    0.214750835E-3
    0.128000210E-6
    0.162276963E-3
    0.253613078E-3
    0.218661662E-3
    0.239270506E-3
    0.271974190E-3
    0.286159280E-3
    0.306116068E-3
    0.291400502E-3
    0.263090333E-3
    0.261256297E-3
    0.142786143E-3
    0.843368042E-7
    0.115987255E-3
    0.194942040E-3
    0.188073915E-3
    0.291039149E-3
    0.482398027E-3
    0.595143589E-3
    0.600917963E-3
    0.557512161E-3
    0.487534970E-3
    0.360947277E-3
    0.296275597E-3
    0.248053431E-3
    0.947310691E-4
    0.214992033E-3
    0.538334541E-3
    0.650375267E-3
    0.776052242E-3
    0.961390208E-3
    0.981941121E-3
    0.900311279E-3
    0.758687791E-3
    0.551553618E-3
    0.450842665E-3
    0.361258979E-3
    0.109250657E-3
    0.220921618E-3
    0.622312946E-3
    0.779880153E-3
    0.991070294E-3
    0.131728128E-2
    0.143869349E-2
    0.143856916E-2
    0.131701899E-2
    0.990800792E-3
    0.779623806E-3
    0.622194028E-3
    0.221073802E-3
    0.109206332E-3
    0.360746111E-3
    0.450186169E-3
    0.550748955E-3
    0.757617352E-3
    0.899134960E-3
    0.980815385E-3
    0.960401259E-3
    0.775306020E-3
    0.649767229E-3
    0.537776272E-3
    0.214736443E-3
    0.948763482E-4
    0.248318247E-3
    0.296508515E-3
    0.361234823E-3
    0.487931306E-3
    0.557991036E-3
    0.601532811E-3
    0.595834397E-3
    0.482984702E-3
    0.408285909E-3
    0.350184418E-3
    0.159295727E-3
    0.115990122E-3
    0.243359245E-3
    0.283500296E-3
    0.482398027E-3
    0.571521814E-3
    0.812688260E-3
    0.883433735E-3
    0.766685698E-3
    0.702711637E-3
    0.581172702E-3
    0.382989121E-3
    0.260816363E-3
    0.166832266E-3
    0.168030980E-3
    0.406470528E-3
    0.650453556E-3
    0.918455888E-3
    0.133485801E-2
    0.149031368E-2
    0.130307628E-2
    0.115042762E-2
    0.907758193E-3
    0.583998335E-3
    0.379190024E-3
    0.204698837E-3
    0.152682522E-3
    0.433811976E-3
    0.756136666E-3
    0.115368923E-2
    0.176201656E-2
    0.200589234E-2
    0.191214215E-2
    0.200557895E-2
    0.176171644E-2
    0.115351973E-2
    0.756125955E-3
    0.434032176E-3
    0.152921901E-3
    0.204554381E-3
    0.378667290E-3
    0.583151996E-3
    0.906437635E-3
    0.114880456E-2
    0.130146323E-2
    0.148875115E-2
    0.133352401E-2
    0.917530502E-3
    0.649760303E-3
    0.405997678E-3
    0.167974053E-3
    0.167100327E-3
    0.261158333E-3
    0.383393985E-3
    0.581692089E-3
    0.703232421E-3
    0.767332385E-3
    0.884382403E-3
    0.813639141E-3
    0.572180666E-3
    0.419309479E-3
    0.286723167E-3
    0.165053323E-3
    0.201487084E-3
    0.285593676E-3
    0.571521814E-3
    0.496144115E-3
    0.824035320E-3
    0.984033803E-3
    0.742577366E-3
    0.581834000E-3
    0.621604791E-3
    0.533252314E-3
    0.317201950E-3
    0.165007936E-3
    0.990093540E-4
    0.183315089E-3
    0.420454569E-3
    0.776134897E-3
    0.133491203E-2
    0.165797502E-2
    0.127227791E-2
    0.969743880E-3
    0.977000804E-3
    0.806711905E-3
    0.463852979E-3
    0.217847541E-3
    0.905467969E-4
    0.170910527E-3
    0.468178128E-3
    0.964363397E-3
    0.175837055E-2
    0.214120327E-2
    0.170339679E-2
    0.170322740E-2
    0.214091712E-2
    0.175823062E-2
    0.964356004E-3
    0.468308281E-3
    0.171104228E-3
    0.906128480E-4
    0.217608584E-3
    0.463211705E-3
    0.805545831E-3
    0.975520117E-3
    0.968387991E-3
    0.127089815E-2
    0.165635988E-2
    0.133355346E-2
    0.775313296E-3
    0.419985532E-3
    0.183140466E-3
    0.990948465E-4
    0.165270962E-3
    0.317620113E-3
    0.533865299E-3
    0.622171792E-3
    0.582288252E-3
    0.743325858E-3
    0.985179329E-3
    0.825000461E-3
    0.496683992E-3
    0.282199500E-3
    0.143437792E-3
    0.113201597E-3
    0.194736931E-3
    0.496144115E-3
    0.304854679E-3
    0.612403208E-3
    0.912189425E-3
    0.761585601E-3
    0.452053122E-3
    0.450385094E-3
    0.548826822E-3
    0.407562533E-3
    0.195443703E-3
    0.773813808E-4
    0.649968279E-4
    0.186356905E-3
    0.464402052E-3
    0.961468788E-3
    0.149036897E-2
    0.127225812E-2
    0.707484724E-3
    0.659653335E-3
    0.801888120E-3
    0.591614284E-3
    0.272601726E-3
    0.888815994E-4
    0.509256097E-4
    0.197321657E-3
    0.571301905E-3
    0.130917481E-2
    0.206364156E-2
    0.179096696E-2
    0.133300142E-2
    0.179077662E-2
    0.206352118E-2
    0.130916329E-2
    0.571365235E-3
    0.197433255E-3
    0.510077953E-4
    0.888272116E-4
    0.272251869E-3
    0.590797456E-3
    0.800695445E-3
    0.658624223E-3
    0.706638501E-3
    0.127108500E-2
    0.148891588E-2
    0.960456848E-3
    0.463894365E-3
    0.186152261E-3
    0.649795402E-4
    0.775048757E-4
    0.195733912E-3
    0.408107589E-3
    0.549522752E-3
    0.450917258E-3
    0.452639506E-3
    0.762626878E-3
    0.913369411E-3
    0.613148208E-3
    0.305172667E-3
    0.129814362E-3
    0.600245730E-4
    0.926576249E-4
    0.304854679E-3
    0.132351182E-3
    0.314451492E-3
    0.621446583E-3
    0.799432746E-3
    0.609474722E-3
    0.466908474E-3
    0.505342148E-3
    0.417355594E-3
    0.213312189E-3
    0.848480558E-4
    0.352254428E-4
    0.631665534E-4
    0.198516776E-3
    0.484214805E-3
    0.981944730E-3
    0.130297418E-2
    0.969603367E-3
    0.659606012E-3
    0.703127182E-3
    0.599069404E-3
    0.304876041E-3
    0.113654023E-3
    0.324541907E-4
    0.619941929E-4
    0.244356925E-3
    0.672524329E-3
    0.148433214E-2